# vtk DataFile Version 2.0
Really cool data
ASCII
DATASET POLYDATA
POINTS 8 float
1.0 -1.0 1.0
1.0 -1.0 -1.0
1.0 1.0 -1.0
1.0 1.0 1.0
-1.0 -1.0 1.0
-1.0 -1.0 -1.0
-1.0 1.0 -1.0
-1.0 1.0 1.0
POLYGONS 12 48
3 4 0 3
3 4 3 7
3 0 1 2
3 0 2 3
3 1 5 6
3 1 6 2
3 5 4 7
3 5 7 6
3 7 3 2
3 7 2 6
3 0 5 1
3 0 4 5
POINT_DATA 8
SCALARS features_00 float 1
LOOKUP_TABLE default
255.0 255.0 255.0 0.0 0.0 0.0 0.0 0.0
SCALARS features_01 float 1
LOOKUP_TABLE default
0.0 0.0 0.0 0.0 0.0 0.0 0.0 0.0
SCALARS features_02 float 1
LOOKUP_TABLE default
0.0 0.0 0.0 0.0 0.0 0.0 0.0 0.0